# y+ ()       
# Time        	patch         	min           	max           	average       
500           	pipe	7.834021e-01	2.253399e+00	1.578279e+00
